# vtk DataFile Version 5.1
vtk output
ASCII
DATASET POLYDATA
POINTS 1111 double
77.883903503 63.633701324 45.870201111 76.77336587 63.759025028 46.914583476 76.652350702 64.924366964 46.544688706 
77.754029265 64.853180062 45.517222941 76.052668152 63.742557035 48.241635384 75.809748456 64.990432049 47.802772915 
75.645219874 63.810739317 49.698733753 75.340969628 65.174681787 49.256159159 75.554742379 63.972230589 51.204909329 
75.231787086 65.434332158 50.889343289 75.706420876 64.09733073 52.717652782 75.48552829 65.517446994 52.59369466 
75.937184551 64.015914473 54.227571293 75.71267819 65.435768853 54.210980277 76.507170765 63.921389076 55.643156707 
76.145932059 65.382121002 55.711481446 77.041187021 63.989335037 57.069863308 76.705180005 65.397248978 57.190388771 
77.687686359 64.077744291 58.441427896 77.366616689 65.425818533 58.616500995 78.537857938 64.115887666 59.709793221 
78.247811472 65.478974497 59.915870418 79.525002171 64.20907257 60.864063267 79.318095632 65.555838107 61.056447864 
80.773619234 64.217508183 61.729623032 80.593638268 65.628922554 61.952025664 82.194257067 64.296357248 62.290339129 
82.010960465 65.718064002 62.622288901 83.653440449 64.357218543 62.714713488 83.531697583 65.81615892 62.998896812 
85.172110268 64.424100052 62.85112762 85.093055304 65.859978228 63.164561902 86.700589983 64.422933414 62.904937128 
86.655778178 65.870123045 63.158621897 88.211590532 64.415488883 62.757995928 88.193844936 65.857084198 63.015299016 
89.689896372 64.461049907 62.375892627 89.672016293 65.901890349 62.612828797 91.168899048 64.55103786 62.005488733 
91.107240719 65.96925946 62.076558125 92.647831253 64.648383043 61.675738952 92.517842651 65.987419474 61.54748662 
93.883130282 64.710618623 60.775795935 93.789586469 66.023939138 60.678824901 94.978512266 64.635295514 59.717934769 
94.956013314 66.035769099 59.661452171 95.836841516 64.564719322 58.477280218 95.921283006 66.041494295 58.474332526 
96.426749772 64.537019079 57.07380152 96.665586885 66.076433285 56.991464549 96.770322347 64.521349516 55.588554967 
96.984387282 65.865352946 55.38634148 96.49664295 64.09513727 54.145233417 96.734955335 65.571613641 53.8932505 
96.110067656 63.780272592 52.701907812 96.232597209 65.2962439 52.446711633 95.549672183 63.539750238 51.306571881 
95.608865025 65.060672227 51.066134338 94.839205909 63.34428999 49.966935257 94.90046097 64.865044956 49.738837631 
94.059815672 63.177016079 48.661946322 94.106625514 64.699628717 48.462973164 93.14309133 63.095746998 47.440166388 
93.196355607 64.57564317 47.273936053 92.012114512 62.974497639 46.431566049 92.099830733 64.476901663 46.250040778 
90.744689683 62.91757845 45.590536079 90.881753805 64.425618798 45.360464689 89.383742464 62.946246475 44.898897863 
89.515771276 64.443917531 44.685138766 87.945026669 62.988827539 44.381193215 88.089017613 64.503059317 44.124595505 
86.46653793 63.125884387 44.015380743 86.577738235 64.634165073 43.778344715 84.955791927 63.193084671 43.800180305 
85.018538086 64.780840712 43.622929737 83.433718701 63.293556381 43.753076116 83.44708837 64.870948169 43.560945968 
81.925011485 63.429646418 43.917366046 81.885708046 64.921556405 43.731632281 80.452631495 63.504432102 44.298164122 
80.37307044 64.875543979 44.084803918 79.066375736 63.50355553 44.908662822 78.951771634 64.809161916 44.61839411 
78.394599915 88.998199463 37.739398956 79.947980195 88.980312186 37.552765849 79.932476621 87.394175934 37.799104572 
78.374279533 87.377103791 37.890509955 81.499752485 88.957100493 37.472893656 81.487514088 87.399189636 37.770228903 
83.046849933 88.918409338 37.703403192 83.042207818 87.39370638 37.930410015 84.598530829 88.887494556 37.899213398 
84.589659264 87.380474577 38.126733559 86.154244954 88.863422636 38.064489738 86.12694922 87.368897257 38.373850968 
87.65919471 88.889547732 38.487287112 87.622786637 87.40136122 38.821843536 89.130893926 88.953373119 39.001986785 
89.085640582 87.460084585 39.356638091 90.553587002 89.0733963 39.642050073 90.498368627 87.551241231 40.000267051 
91.847980288 89.200425918 40.505938362 91.804689045 87.667339041 40.828492733 92.993865937 89.314438351 41.539361997 
93.051404889 87.784255142 41.731241986 93.940796477 89.406672454 42.781520436 94.152902083 87.886955666 42.806259252 
94.911493765 89.538723092 44.001460387 95.281812135 88.052077009 43.874817194 95.88287928 89.670706522 45.22093625 
96.313640352 88.195569271 45.049747812 96.827588317 89.792609375 46.457154108 97.238092899 88.298830632 46.332855862 
97.433842228 89.819684027 47.899327926 97.882585309 88.276882856 47.800403637 97.977473432 89.844207841 49.365427124 
98.476874261 88.303055881 49.316097074 98.435776041 89.880422481 50.856282321 98.97117763 88.45929185 50.846840236 
98.640196573 89.983737612 52.404080886 99.248208434 88.645041876 52.419956912 98.501490846 90.036519118 53.942724857 
99.151186364 88.739520243 54.015256606 98.14394628 90.06284868 55.460341953 98.718818343 88.750882624 55.524076145 
97.497433245 90.079014552 56.88508815 97.981409222 88.699591348 56.922717123 96.70509964 90.0875402 58.22863842 
97.138535904 88.642597293 58.263535606 95.821918986 90.09633204 59.51963277 96.195347038 88.48252807 59.571856682 
94.86753886 90.131956084 60.759000217 95.082443372 88.080084863 61.119008504 93.844086787 90.154511025 61.940182196 
93.893149041 88.68545357 62.256022437 92.769364775 90.167207917 63.074350602 92.888049856 88.728706192 63.279648817 
91.432643936 90.126167029 63.886529898 91.654717275 88.638760517 64.140422865 90.02339715 90.103118765 64.527877761 
90.305503225 88.624430776 64.89596141 88.509206723 90.106105481 64.922035843 88.848991875 88.662146563 65.519063986 
87.004477338 90.097131222 65.350323898 87.311461212 88.663668913 66.011131295 85.495261373 90.084572614 65.752392608 
85.721777832 88.65852098 66.414412576 83.940556655 90.072103234 65.928119441 84.098370545 88.667302659 66.700463014 
82.381264071 90.087489783 66.009961072 82.368164847 88.65087821 66.797063053 80.817286926 90.131319355 65.995938772 
80.67907783 88.828743242 66.647216316 79.473554229 90.094258033 65.259234801 79.30584865 88.728943147 65.777470016 
78.186517302 90.04988184 64.373589317 78.026861661 88.646813266 64.796270935 76.994948834 90.037785803 63.359606854 
76.818010532 88.562359672 63.753709954 75.789304065 89.983833366 62.364722278 75.652807422 88.466067923 62.685894925 
74.572511363 89.89630197 61.384986974 74.50860335 88.354351406 61.608140867 73.398544243 89.806702532 60.354494225 
73.369819912 88.256974455 60.525526835 72.344102018 89.673573192 59.224264461 72.361472574 88.121154016 59.357155564 
71.47790507 89.4718866 57.936954269 71.492972527 87.953215039 58.064957187 70.797137113 89.232393226 56.554956136 
70.786787915 87.76328789 56.677434082 70.192276453 88.999620333 55.13393195 70.127885899 87.63211108 55.245919292 
69.656671992 89.160886562 53.672677958 69.491353279 87.654554623 53.79015273 69.165592721 89.254711756 52.19506692 
68.897545628 87.707544582 52.313587132 68.77174467 89.201263603 50.68173643 68.476236837 87.711119191 50.790431493 
68.74989054 89.160764974 49.154791222 68.443831093 87.667214588 49.197143266 69.03495397 89.130950489 47.616613045 
68.700006098 87.631584756 47.62621975 69.549649756 89.075753525 46.145060716 69.239828151 87.569839443 46.118646608 
70.140733963 89.014692823 44.701206489 69.858568646 87.537506253 44.639650057 71.155013254 88.967738427 43.510754907 
70.827516712 87.476187522 43.383222578 72.171117278 88.9346575 42.321627211 71.835246757 87.444770155 42.152958584 
73.192354548 88.940604719 41.136223806 72.931696625 87.425853165 41.003564697 74.348491084 88.954994545 40.102092266 
74.138837018 87.400907613 39.978369002 75.641831684 88.977971223 39.221817121 75.425252295 87.382396565 39.053412148 
77.004955362 88.990139244 38.458401889 76.884132318 87.35829764 38.409344173 75.435304236 66.174456249 47.177698965 
76.382972818 66.105078526 46.024049093 74.794977008 66.44139256 48.631914707 74.493926883 67.03707251 50.49405718 
74.833162906 66.879768835 52.620047687 75.177608891 66.793820941 54.317382059 75.68042195 66.772724382 55.880441485 
76.259554475 66.774483239 57.381875219 76.956785161 66.788290194 58.842370519 77.827175179 66.820724311 60.225266824 
78.961809121 66.908207546 61.404230732 80.294535094 67.021208061 62.335198195 81.785253757 67.169793055 63.023014047 
83.369815099 67.272890652 63.501036774 85.012479433 67.271124732 63.715864438 86.653101776 67.23691881 63.747008883 
88.265773238 67.193253633 63.63097154 89.814195631 67.208786709 63.263407557 91.29877982 67.262214629 62.708289391 
92.720183482 67.315775709 62.026967367 94.051521251 67.375823358 61.145914709 95.29399389 67.406605443 60.147427615 
96.513569285 67.454958328 58.951807556 97.603045079 67.796142611 57.08004182 97.515229547 67.344936716 55.063678371 
97.088302236 67.02126955 53.490053242 96.523798995 66.750773422 52.071397068 95.858673088 66.522867891 50.705921554 
95.110744469 66.335191003 49.40313885 94.278789979 66.17694081 48.163980087 93.376781153 66.03443876 46.98438061 
92.27379226 65.945238935 45.977169113 91.050972681 65.897428807 45.093214983 89.712743364 65.905110587 44.362123951 
88.280581526 65.97266394 43.77983686 86.736899488 66.131093435 43.417792655 85.149092535 66.33668263 43.282369447 
83.443771782 66.500231241 43.208837974 81.770758446 66.424817799 43.505293653 80.175495738 66.262308938 43.883129468 
78.763944944 66.083169266 44.275259025 77.468487801 66.011305506 45.008061454 81.495195514 85.843422765 37.703825921 
79.902476588 85.810078933 37.674250511 83.067074755 85.851938643 37.880636045 84.609098475 85.849031966 38.19017515 
86.122821086 85.853825008 38.598393374 87.622785974 85.884280777 39.063507116 89.092654932 85.935952744 39.599773245 
90.527848904 86.01797075 40.223256259 91.874242713 86.131512919 41.006180666 93.225893343 86.258908202 41.782939901 
[...]
POINT_DATA 1111
FIELD FieldData 16
CurvGaussian 1 1111 double
3.789728558 3.4331472673 -0.0306562166 -0.018016393734 3.9729657343 -0.031403628352 4.2502443713 -0.031894159996 4.0171353255 
-0.024309262193 3.7036360066 -0.0029484878359 4.0503752354 -0.021280803462 4.560503018 -0.0083388303581 4.5148978019 -0.0028616042529 
4.2786736255 -0.0064250620352 4.1381127693 -0.0061467932585 4.0765044099 -0.019889896057 4.5308023977 -0.01698397027 4.663969395 
-0.0082579818583 5.0125877552 -0.013733789606 5.0135349752 -0.011004977737 5.0320867949 -0.0097285201282 5.4588935278 -0.026170793547 
5.7798461958 -0.012179587301 5.8751573651 -0.015103142955 6.0162682923 -0.071679522646 6.029984976 -0.040667842172 5.9977980075 
-0.054253776719 5.7530421597 -0.057706908472 5.1732750297 -0.038551272203 4.1994395804 -0.041163059389 4.2270949923 -0.017307509373 
4.0623748641 -0.010124159571 3.7717088948 -0.010354921645 3.5174960753 -0.0059236530473 3.518461167 -0.0045381047336 3.6038748609 
-0.0089982851115 3.8525889657 -0.0092046638238 4.0755919261 -0.0032006821171 4.1972279742 -0.0053832386979 4.2333170169 -0.0062050836322 
3.9922012243 -0.0071388407311 3.9039910617 -0.0033922012198 3.6516618172 -0.010437018774 3.230048681 -0.001048522141 3.1187057193 
-0.014518581088 3.5379680011 -0.029835838324 5.1808988467 5.2228070567 -0.010903148048 -0.012357779718 5.1929179101 -0.0094794690394 
4.9542951832 -0.0068674390555 4.9110152006 -0.0038058547277 5.0396281385 -0.0014644630985 5.0178828 -0.0012243392664 5.0190719311 
-0.0018681010474 5.0700143409 -0.0040764337982 5.4121837689 -0.01219223404 5.7101094013 -0.016490435072 5.8704392515 -0.0057691061832 
6.4803416529 -0.0083232488157 7.0940878411 -0.013117429907 7.5748333236 -0.019832304375 6.6739683211 -0.010654789955 6.1154217011 
-0.0042306424495 5.8608241697 -0.010636494577 6.1643580505 -0.0041575304644 5.9584744395 -0.0027182200436 5.5136461407 -0.0060955848173 
5.121737252 -0.0085652796506 5.07463212 -0.00779541746 5.2142187351 -0.0013082000175 5.3511517122 -0.00081282651056 5.2006922642 
-0.0045611226963 4.8773480541 -0.0092703147222 4.5348303368 -0.012177751061 4.5049133099 -0.014658049356 4.9273177086 -0.010960564409 
5.3289187935 -0.0085966820472 5.6390638399 -0.0071045297248 5.420749125 -0.012111370129 5.1590539945 -0.019864961844 4.853062582 
-0.018180659385 5.0725058538 -0.012009389207 5.3690007599 -0.0061780251613 5.603070732 -0.0035785949767 5.54053126 -0.0016566081666 
5.2395702747 0.00038069711171 4.7828694399 -0.0076226767505 4.3502890501 -0.011709235723 3.9556970629 -0.0081985662572 3.7464459433 
-0.0048280028013 3.6637242997 -0.0016855573243 4.5817291951 -0.0047270070158 5.2130111203 -0.00657386489 5.2181660436 -0.015742617192 
5.4346146066 -0.016307564839 5.825393244 -0.0091771347124 5.4380311985 -0.0076655375887 4.8532254541 -0.0063774756616 4.2835961834 
-0.0035947244914 3.8609047993 -0.0017867548926 3.8515717283 -0.0053610837224 3.9962689054 -0.0059692956682 4.2976279875 -0.0036122656211 
4.7168640086 -0.0079300212666 -0.0066444835692 -0.028977140691 -0.018437696651 -0.0049210486416 -0.00096758717001 0.0017724059963 -0.0031901255585 
-0.00026124832175 0.0032376272016 0.010606819864 0.0040975905736 1.1291173027e-05 -0.0030559098752 -0.0059298050911 -0.0049228136978 -0.0076949905015 
-0.0067402257954 -0.0047666574641 -0.0042176905309 -0.011802257677 -0.011012486938 -0.0075168744799 -0.0087202665063 -0.0015576197491 -0.0042624337039 
-0.0052383523307 -0.0031113702218 -0.0039551584682 -0.0033812622607 -0.0022400389077 -0.0037224387033 -0.0063958058589 -0.0054536402737 -0.004105619108 
-0.0060720045014 -0.0078075854352 -0.003834708386 -0.016219873067 -0.0060182474691 -0.018085615976 -0.056201235839 -0.047327991231 -0.0028918244694 
-0.0032079364648 -0.0020369879314 -0.0025251860217 -0.0035087476209 -0.0029254443507 -0.0038415895441 -0.0041615153986 -0.0056927240981 -0.0081845558073 
-0.0094706687839 -0.0051905810133 0.00062019802556 -0.00012972844215 0.0011121281427 -0.00047925800937 -0.00034030782279 0.0012717925261 -8.4865409634e-05 
-0.0025292387054 -0.0020974401518 -0.00078278119041 8.1048504284e-05 0.00064923905678 -0.0021947002253 -0.0014712450095 -0.0050410639298 -0.0064637029986 
-0.0061424852227 0.00056473854456 -0.00041732580688 0.00090789282833 0.0018764910226 -0.01200855918 -0.0027634910518 -0.0026714799457 -0.0025246472353 
-0.0037699566324 -0.00080425868346 -0.0027151693261 -0.0049742685751 -0.0030352720869 -0.0025868294182 -0.0029171280674 0.0044897643254 0.0001470907377 
0.0060488830649 0.013470476242 0.0054447052499 0.0033471610603 0.00078486881626 0.00073014410761 0.0017519298371 0.0037296655921 0.0010550960653 
-0.0027361110659 -0.0020239634817 -0.0043593105179 -0.00073029220525 0.00053251458865 0.0058339009044 -0.003787587814 0.0083964004981 0.006987174905 
0.0021725971122 0.0010223210809 0.0079917882663 0.0045235685482 0.00255903163 -0.0022754498567 -0.0046229966733 -0.0034430835933 -0.0021428026169 
-0.0040061812176 -0.0018373167762 -0.0002979584548 -0.00023522811707 0.00095647833037 0.0013226866578 0.006932981801 0.0058676669079 -0.0044000128016 
-0.004772474091 -0.0077393058486 -0.0082534468652 -0.0053375023785 -0.0033161024521 -0.0048137311958 -0.0026263527014 -0.0037821291458 -0.0041265307332 
-0.0055746604324 -0.0066765291737 -0.0073675612427 -0.012111718858 0.004126205321 0.013852254409 -0.040917868331 -0.043509749017 -0.027773883239 
-0.014191156213 -0.00022838420086 -0.0095813705679 -0.0015878065611 -0.00075713557185 -0.0007874628398 0.0010589680744 0.00077038384911 0.00068467452218 
0.0014635066878 0.0068880673917 0.011950355284 -0.0027177436777 0.0058076290991 -0.00013265875727 0.0025170765216 -0.00060078543349 -0.001423752645 
-0.0044154623536 -0.0053819707571 -0.0026598367322 0.00053967190479 -0.0016654843399 -0.00089179090258 0.0069666825345 0.02236294536 0.015847296547 
0.0014803945921 0.0020705221139 0.0011189643733 -0.0012146110873 -0.0019935715815 -0.0026296057358 -0.0022763626749 -0.001475487858 -2.5301675036e-05 
-0.0018811593948 -0.0048297779241 -0.0045455174489 -0.003513341553 -0.001645933989 0.00025775530569 -0.0010163611708 -0.001896479794 -0.001680731854 
-0.0043667650673 -0.005299201177 -0.005832149403 -0.0053067053777 -0.0042673174392 0.0024922036603 0.0045479360863 0.00049405831569 0.0031381975492 
-0.00040678367623 0.0012744892275 0.0084313144611 0.0055347129444 0.004749787418 -0.00021684464301 -0.0046376743595 -0.0018021387372 -0.0014457761434 
-0.0010635410676 -0.00090580985699 0.011984623825 0.012950082191 -0.010196442451 -0.0089973381918 -0.012824389024 -0.012301282236 -0.012934601946 
-0.011969660906 -0.0090634521105 -0.0060333922255 -0.0076602538308 -0.0046762799474 -0.005901308232 -0.0065148082069 -0.007546233438 -0.0097573125617 
-0.010479391299 -0.0055268070678 -0.00056205856459 -0.0046964312544 0.0058293102509 0.0060257763102 -0.0019541912668 -0.0086970035096 -0.0021261761356 
-0.0035030646455 -0.0013349994062 0.0015752009674 -0.00030794354304 -0.0012920760917 -0.001123088918 -0.0087623581219 -0.016515767337 -0.015802037653 
-0.0098575761702 -0.0043515783679 1.1054900949e-05 0.0021153278048 0.0050121032965 0.0058173697146 0.0089190609866 0.014780006796 0.012844036102 
0.022188466239 0.021124361936 -0.0032811944202 -0.010653707899 -0.006422096398 -0.0014163279968 -0.0010345973421 -0.010371476024 -0.010102761577 
-0.010835371963 -0.0084401900794 -0.0071915198923 -0.00097919922073 -0.0024891088152 0.0045807779115 0.010929455697 0.015131846149 0.01357469362 
0.0082988355176 0.0055384580239 0.011931681325 0.0031129037174 0.013923949255 0.0068970111328 0.0022180250625 0.0017112896159 -0.00028518942187 
-0.0011815266237 0.00030914561994 0.00017017420226 -0.0052147216463 -0.0059609250259 -0.0044444153069 -0.0025057125029 -0.00090809620321 -0.001301975485 
-0.0016365251897 -0.0018998217387 0.0031308660959 0.0011747677327 -0.0015868690462 -0.00027815424933 -0.0001534790866 -0.001661631828 -0.004340403789 
-0.0083644830061 -0.00063100435586 -0.010888582989 0.00011674258539 0.0037834940828 0.00054022621328 -0.00032802684047 -0.00013151148373 -0.00094573718767 
-0.0012337846948 -0.00054759627989 -0.0005708954786 -0.0008764960672 0.0014403321193 0.0079639261513 0.011437562119 0.0054785204385 0.0076910175374 
0.0033482786144 0.0019757187698 0.0058402574439 8.7943336549e-05 0.0075276893279 0.0095807430954 0.0042162624104 0.00061619556615 9.1157214506e-05 
-0.0019939280842 -0.00061984039263 -0.00064809103259 -0.0015965016444 -0.0051130036477 9.7871663421e-05 0.0043925395875 0.0067417325193 0.0077370106262 
0.013294178078 0.013288674009 0.0016664835036 0.0025970241235 -0.0013252761161 -0.0033482801452 -0.0015438302515 0.0098716434992 -0.0016341817339 
0.003241429464 0.0056181908788 0.0064861953646 0.0052906182361 0.006964436306 0.010116902063 0.0039169015546 0.00067834634384 -0.0036593145024 
-0.0038201224699 -0.0050256350612 -0.0055563958734 -0.0049135007471 -0.0037859569027 -0.0051634312479 -0.0048370157199 -0.00406634845 -0.0040218845923 
-0.0018824147073 -0.0014977125078 -0.0030006400515 -0.0018758579132 -0.00022734322505 -0.00020795991421 0.0027559936306 0.0049940337025 0.010015603228 
0.0099584817969 0.011256348794 0.0018014036221 0.00096661272301 -0.0035451845321 -0.01610533468 -0.0093251704257 -0.014743150695 -0.0074035100167 
-0.0067119058409 -0.0084421769626 -0.006006889962 -0.003825823382 -0.0029997355722 -0.0044524065944 -0.010405044232 -0.0088675359859 -0.0027734253866 
-0.0023632937967 -0.012569667547 -0.028197618183 -0.019244689225 -0.0098597780434 -0.0021201651197 -0.0046966368048 0.0022384174801 0.0034621691176 
0.011066928199 0.012473432943 0.017888962793 0.017668733639 0.016751640009 0.0081307573416 -0.011223097866 -0.0037752829526 0.0037014206516 
0.0090113143123 0.016049439157 0.0017128366933 0.001588753319 -0.0095609485407 -0.0062033501707 0.0058364444766 0.007990273192 0.004705206382 
0.0038723852848 -0.00339192954 -0.0013561863487 0.0002451322156 0.011255544816 0.013892951046 0.013165341073 0.0061975258341 0.00064852808419 
0.008854418719 0.0095731095249 0.0025846068728 -0.00057273753499 -0.001737373029 -0.0025701615693 -0.00027152940654 0.0049362066469 0.0049193353768 
-0.00071374268312 -0.0010144540851 0.0010879883748 0.00094732574402 -0.00048595375022 -0.00079055404963 -0.00029663586693 0.00049869668125 0.0010306033453 
-0.0001648311315 0.0036160407132 8.3945206622e-05 0.00033092794559 -8.1458615722e-05 0.0003323625316 -0.00018542041303 -0.00088681309409 -0.0031570642547 
-0.00010835584529 0.0039260034168 0.0070344253255 0.009062752755 0.010294056361 0.0079218212237 0.0057748654532 0.0038805607595 0.0041119976132 
0.0053867575373 0.0027609238539 0.0019625062675 0.0039111143802 0.0016006780036 0.0044723263796 -0.00038994471286 0.0020941852868 0.0044863994011 
0.0044537165123 -0.0030620187387 0.006201267038 0.0032275063567 0.0046129198362 0.0023459449952 0.0043876417306 0.0061396004191 0.0049374354548 
0.012893239535 0.019911258204 0.01345913723 0.007455589821 0.0086987297389 0.0086004977349 0.0030464228266 0.0048195483896 0.0066633649342 
-0.0027094078269 -0.0077555443994 -0.0043227046128 0.0012948785972 0.0085388776884 0.0036106314296 -0.0018142175765 0.0005166639897 0.0018478131598 
-0.00072847258086 -0.00027253810747 0.0039003769397 0.008066567484 0.016764522421 0.012237232309 0.018206651048 0.019961357235 0.011509767325 
0.0089162805814 -0.0015909263484 0.00090232136197 0.00020210673589 -0.00040063528885 -0.0005666628586 -0.00039009846188 -0.0031788173129 -0.0040849424938 
-0.0023841203716 0.009981790532 0.016085993105 0.010086088104 0.0094087315344 0.011411953519 0.010404650255 0.0082348916793 0.0019948404422 
0.0023642261451 -0.00032734373375 0.0097192739408 0.015307976537 0.0031425666592 0.0022342936727 0.0049450320475 0.0064187745414 0.0020104814065 
0.0017237418706 0.0028155335022 0.003060285487 0.0015361037809 0.00021034649763 -0.001133683994 -0.0012482947934 -0.0012560382503 -0.0010103563201 
-0.00078107489085 -0.0010141386263 -0.00074053707319 -0.0006699124648 -0.0005580402653 0.0006975293285 0.0032879489483 0.011144487934 0.0017352744829 
0.0036393059652 0.0018718180966 0.006594305959 0.0054049871503 0.0011867815368 0.0023768251958 0.0032770166525 0.0035555931572 0.0062632959148 
0.0040920407381 -0.0012201124765 -0.0018535530969 -0.00073791317772 -2.8658622268e-05 -0.0028129226255 -0.0012111001426 -0.0033901847594 -0.0071010668679 
-0.0028568870975 0.001557197991 -0.0026861870425 -0.0086369625063 -0.0095455525434 -0.0047462007636 0.002305220839 -0.00014337172185 0.0047404278771 
-0.005521434817 -0.0073627817671 -0.0089009354264 -0.011806973112 -0.0081904749385 3.2852969045e-05 0.0058220377202 0.0059193805263 0.0029348594444 
-0.0011110756492 -0.0055626465622 -0.0068375879129 0.004652171612 0.006487414528 0.0065399728179 0.020278562252 0.009640821055 0.019099790866 
0.01373993981 0.014220979497 0.014605900919 0.016885950671 0.0083707398268 0.00089882720527 0.0053640848733 0.011695475789 0.0147765307 
0.015377245496 0.0098798442608 0.0026317964089 -0.003428694718 -0.004178467367 -0.0029954848778 -0.0089106225189 -0.002524859621 0.0037515081405 
0.00096650886878 0.0010485067437 0.0089453576144 0.014594772572 0.013752168821 0.013760779869 0.013347103072 0.011986650863 0.0088639944062 
0.0086820671125 0.0071570524502 0.0065551256149 0.008456213553 0.011138431793 0.0090584301388 0.0054325420428 0.0051087339414 0.0036336122805 
0.0023824460785 -0.00032021840947 -0.00056785419126 -0.00059044741737 -0.00023305951051 0.0037753542108 0.0069117806634 0.0030871399503 0.0072460590931 
0.004337472403 -0.0065381331001 -0.002964678668 0.00025261059884 0.0040570462381 0.0071214670866 0.00046318945941 0.0020303732017 0.0087387771678 
0.011484294757 0.0065721314851 0.0052039530505 0.0035668617827 0.0034569318273 0.0032624018266 0.0018560895515 0.00043203123096 -0.00052006212536 
0.00042672189813 0.00089271053959 -0.00052750606647 -0.00081475550633 -0.00085070116084 0.00043476146672 0.0010666686995 0.0014155556913 0.0085696298113 
0.0031843838361 0.017684583132 0.0054157743658 0.0055476412841 0.012289165921 0.016461651641 0.013147483621 0.013553847251 0.015655783474 
0.010963098476 0.0048940373469 0.0035464089256 0.0020722744897 -0.0009686696667 -0.0018577625647 8.1082492895e-05 0.00049967995577 -0.00062598070005 
-0.0040179584633 -0.0017276394595 0.00039349452793 -0.0024319299379 -0.0012117468365 -7.2834911606e-05 0.003104896877 0.0081739431461 0.0035650436895 
0.0026311815342 0.0083307009465 0.003255278713 -0.0031892090113 -0.0064145330303 -0.0099943790793 -0.0068298341323 -0.014056362264 -0.010553731275 
-0.0036618062653 -0.00099163128962 -0.0023870608642 -0.003683263493 -0.003254633474 0.005239289403 0.0030273535907 0.00088781259932 0.0010593156343 
0.0018908713427 0.011998764961 0.0012513098337 0.021476721332 -0.00037685135957 -0.001457542878 -0.00088383041433 -0.0012011108957 -0.0032180162384 
0.0036731414162 0.00072792388857 -0.0035509208808 0.0060728956328 0.033555885013 0.018150753131 0.0074524195033 0.0074915842801 0.0057047690277 
0.010842885888 0.010185461026 0.0076522641015 0.0098876237629 0.015671828717 0.023223846016 0.0057535322526 0.0034687943489 0.0041990087267 
0.0046049115291 0.0042441294162 0.0012095018782 -0.00071792817937 -0.0018198255076 -0.0024299992192 -0.0027546364792 -0.0029802658858 -0.0016017522379 
-0.00048411121631 0.00037290022334 0.0034112859352 -0.00051502596468 0.0037873719465 0.0067954055497 0.015173112433 0.0089116264163 0.0092590536328 
0.011710225236 0.014076220768 0.01618465412 0.017372225767 0.0045790121148 0.010360168872 0.0023165624307 0.0057410333788 0.0050900527179 
0.0013141436055 -0.00061053775298 -0.002272920434 -0.0034908137355 -0.0015082850123 -0.00084295884533 -0.0025179736813 0.00031707446302 0.00023952964981 
0.0023458670421 0.0070811557701 0.0095392651267 0.011736961109 0.013092850859 0.016827860286 0.016047771627 0.01248685995 0.0064731940248 
-8.3485041987e-05 -0.001311676363 -0.0012577537347 -0.00031903097624 -2.5606645979e-05 0.018195544898 0.0185046709 0.014976085613 0.0096368646568 
0.0064691162909 0.0091293763232 0.01246353456 0.007558152616 0.0028072891998 -0.0051398581881 -0.006048404457 -0.0072439913475 -0.0055355904722 
0.0038396509785 0.012105716399 0.016873677742 0.017324346056 0.0072870171871 0.0017478804018 0.001434531805 0.0024442996776 0.0017327775724 
0.0025194678093 0.0044907435474 0.0066441516314 0.007574398472 0.0068839932945 0.013631982488 0.0054249498471 0.013278745902 0.0025876359538 
0.0030333375653 0.0045303862271 0.0012069735112 0.0013046275311 0.021447159762 0.0069228086089 0.0085184541718 0.0030986978871 -0.0031733663632 
0.0039428985315 -0.0044027296253 -0.004852716048 -0.0011936291238 0.001116870583 0.0012277972236 -0.0023176871891 -0.0039416055764 -0.0016654133507 
-0.0044028994746 0.0048661717818 0.011586513042 0.0040020255097 0.0031441127726 0.0082979770616 0.0056860632096 0.0048978893396 0.0065332878439 
0.011916635124 -0.0026930441766 0.0070929975798 0.020538041213 -0.0069325683126 -0.0054729687412 0.0010644251898 0.0082855132068 0.015036497893 
0.014353629823 0.0041915067763 0.0035438082604 0.0084752133425 0.0078791433242 0.0057320721767 0.0050907496084 0.013311545196 0.0074137151232 
0.004666566277 0.0066642712304 0.0010323632549 0.022907272837 0.01584409186 0.011762182075 0.010379492572 0.0060893610001 0.0086834769617 
0.011281571779 0.0018662806591 -0.00034165816231 0.0026114483128 0.0047489775352 0.0063648423353 0.011803472897 0.017277147239 0.019071325117 
0.013419191973 0.014098520231 0.016215917152 0.01602845281 0.016881530994 0.01231476714 0.014975698068 0.012315907919 0.0083701617695 
0.0040917838163 0.0086979571646 0.010741597755 0.0013612933088 -0.0042124152092 -0.0051026455673 -0.0042969537924 0.01494931755 0.01666644913 
0.011422673056 -0.016302789517 -0.0047848161188 0.0092713660402 0.024939202198 0.015345237696 0.0068007157922 0.0060481918349 0.014504636986 
0.019791528335 0.014665741027 0.0080596520745 0.00019764887966 
CurvMean 1 1111 double
0.049091277625 -0.093047567417 0.022617125953 0.071706921765 -0.13900294854 -0.014997031612 -0.14523862811 0.018838233843 -0.10614291233 
0.047236305321 -0.048207608916 0.13116730666 -0.091215753164 0.071355050919 0.099196532453 0.002244880478 0.049097081042 0.0097196556216 
-0.053393852487 -0.016661253312 -0.070265263509 0.020426030871 -0.11847414992 0.0048904708989 -0.13344573944 0.021491890099 0.0063077259224 
-0.046992243791 -0.17995655954 0.018975037182 -0.037456510536 0.052622686745 -0.099515692242 0.081767801334 -0.14560324474 0.052598108135 
-0.038414816533 0.10901917082 -0.10422297068 0.1698487467 -0.37880227788 0.19450817247 -0.07438286472 0.19826832325 -0.033353547673 
0.1682180514 -0.068240626913 0.12776644801 -0.083289856511 0.091083080782 -0.010037384191 0.0016993325277 0.0046983824739 -0.01902169142 
-0.1228359667 0.0019799676632 -0.10078458854 0.047399092956 0.011057838289 0.0064722567477 -0.10350388783 0.024201807067 -0.10524860442 
0.0017874679612 -0.041601724428 -0.0032058155632 -0.041512419646 -0.037923845686 -0.09746876679 0.013802314553 -0.0054783550577 0.00046584043328 
-0.055446770161 0.0046934442831 -0.074575505478 0.044499113455 -0.054197068884 0.0075962728962 -0.033956560743 0.013018475058 -0.060240545022 
-0.015252442366 -0.092974846642 -0.0071542033716 0.056719754222 -0.13065709318 0.021593221559 -0.013858451425 -0.21961628315 0.048570186668 
-0.022449758153 0.035412321027 0.059305447133 0.012364115245 0.039503828026 -0.010121134416 -0.026988330939 -0.014481550381 -0.051213525113 
-0.013315887358 -0.0035731875434 -0.0028093716886 -0.22405748136 0.0040530651169 -0.369413775 0.01142896906 -0.33494790053 0.073234369813 
0.0073440782328 0.045486382636 0.1306136465 0.018296400494 0.031123771735 0.047749629903 0.026160259535 0.081444541602 -0.18161530672 
0.080596768803 -0.38925533713 0.044200952585 -0.007372558281 -0.051108334065 0.15712924831 -0.068638266641 0.1835293406 -0.010530884889 